                         Program Version 4.2.1 -  RELEASE  -
|  1> ! wb97m-d3bj zora-tzvp autoaux rijcosx veryTightSCF Grid4 nofinalgrid zora
|  2> ! NormalPrint
|  3>
|  4> %maxcore 7500
|  5> %pal
|  6> nprocs 96
|  7> end
|  8>
|  9> %rocis NRoots 200
| 10> MaxDim   10
| 11> maxcore  10000
| 12> MaxIter  50
| 13> RTol     1e-6
| 14> DoPNO    true
| 15> TcutPNO  1e-11
| 16> XASElems 6
| 17> OrbWin = 7,24,0,330
| 18> doquad true
| 19> DoDFTCIS true
| 20> DFTCIS_c = 0.18, 0.20, 0.40
| 21> end
| 22>
| 23>
| 24> * xyz 0 1
| 25> N        -1.161000    3.380000    2.222000
| 26> C        -0.029000    3.640000    1.356000
| 27> C         0.140000    5.138000    1.152000
| 28> O         1.439000    5.661000    1.295000
| 29> O        -0.871000    5.781000    0.877000
| 30> C        -0.222000    3.000000   -0.010000
| 31> C        -0.206000    1.490000   -0.011000
| 32> C        -1.411000    0.777000   -0.003000
| 33> C         1.014000    0.803000   -0.021000
| 34> C         1.029000   -0.598000   -0.023000
| 35> C        -0.176000   -1.310000   -0.014000
| 36> C        -1.397000   -0.623000   -0.005000
| 37> H         0.874000    3.237000    1.816000
| 38> H         0.578000    3.348000   -0.663000
| 39> H        -1.174000    3.337000   -0.420000
| 40> H        -2.352000    1.307000    0.004000
| 41> H         1.943000    1.352000   -0.027000
| 42> H         1.969000   -1.128000   -0.030000
| 43> H        -0.166000   -2.390000   -0.016000
| 44> H        -2.325000   -1.173000    0.001000
| 45> H        -1.265000    2.383000    2.352000
| 46> H        -1.008000    3.821000    3.118000
| 47> H         1.422000    6.609000    1.146000
| 48> N         0.111000    4.962000   -5.408000
| 49> C         0.136000    3.503000   -5.385000
| 50> C        -0.956000    3.021000   -6.338000
| 51> O        -2.077000    3.460000   -6.439000
| 52> O        -0.516000    2.005000   -7.088000
| 53> C        -0.178000    2.969000   -3.970000
| 54> C        -0.177000    1.478000   -3.961000
| 55> C        -1.382000    0.770000   -3.951000
| 56> C         1.042000    0.791000   -3.981000
| 57> C         1.067000   -0.598000   -3.975000
| 58> C        -0.150000   -1.282000   -3.930000
| 59> O        -0.063000   -2.640000   -3.916000
| 60> C        -1.380000   -0.621000   -3.932000
| 61> H        -0.805000    5.407000   -5.348000
| 62> H         1.154000    3.130000   -5.707000
| 63> H         0.579000    3.377000   -3.263000
| 64> H        -1.141000    3.381000   -3.602000
| 65> H        -2.334000    1.310000   -3.957000
| 66> H         1.982000    1.348000   -3.996000
| 67> H         2.008000   -1.146000   -3.999000
| 68> H        -2.314000   -1.180000   -3.931000
| 69> H        -0.848000   -3.063000   -3.471000
| 70> H        -1.200000    1.616000   -7.712000
| 71> H         0.540000    5.262000   -6.273000
| 72> *
| 73>
| 74>                          ****END OF INPUT****

CARTESIAN COORDINATES (ANGSTROEM)
---------------------------------
  N     -1.161000    3.380000    2.222000
  C     -0.029000    3.640000    1.356000
  C      0.140000    5.138000    1.152000
  O      1.439000    5.661000    1.295000
  O     -0.871000    5.781000    0.877000
  C     -0.222000    3.000000   -0.010000
  C     -0.206000    1.490000   -0.011000
  C     -1.411000    0.777000   -0.003000
  C      1.014000    0.803000   -0.021000
  C      1.029000   -0.598000   -0.023000
  C     -0.176000   -1.310000   -0.014000
  C     -1.397000   -0.623000   -0.005000
  H      0.874000    3.237000    1.816000
  H      0.578000    3.348000   -0.663000
  H     -1.174000    3.337000   -0.420000
  H     -2.352000    1.307000    0.004000
  H      1.943000    1.352000   -0.027000
  H      1.969000   -1.128000   -0.030000
  H     -0.166000   -2.390000   -0.016000
  H     -2.325000   -1.173000    0.001000
  H     -1.265000    2.383000    2.352000
  H     -1.008000    3.821000    3.118000
  H      1.422000    6.609000    1.146000
  N      0.111000    4.962000   -5.408000
  C      0.136000    3.503000   -5.385000
  C     -0.956000    3.021000   -6.338000
  O     -2.077000    3.460000   -6.439000
  O     -0.516000    2.005000   -7.088000
  C     -0.178000    2.969000   -3.970000
  C     -0.177000    1.478000   -3.961000
  C     -1.382000    0.770000   -3.951000
  C      1.042000    0.791000   -3.981000
  C      1.067000   -0.598000   -3.975000
  C     -0.150000   -1.282000   -3.930000
  O     -0.063000   -2.640000   -3.916000
  C     -1.380000   -0.621000   -3.932000
  H     -0.805000    5.407000   -5.348000
  H      1.154000    3.130000   -5.707000
  H      0.579000    3.377000   -3.263000
  H     -1.141000    3.381000   -3.602000
  H     -2.334000    1.310000   -3.957000
  H      1.982000    1.348000   -3.996000
  H      2.008000   -1.146000   -3.999000
  H     -2.314000   -1.180000   -3.931000
  H     -0.848000   -3.063000   -3.471000
  H     -1.200000    1.616000   -7.712000
  H      0.540000    5.262000   -6.273000

 Total Charge           Charge          ....    0
 Multiplicity           Mult            ....    1
 Number of Electrons    NEL             ....  184
 Basis Dimension        Dim             ....  632

ORBITAL ENERGIES
----------------

  NO   OCC          E(Eh)            E(eV)
   0   2.0000     -19.421990      -528.4992
   1   2.0000     -19.413996      -528.2817
   2   2.0000     -19.392267      -527.6904
   3   2.0000     -19.364435      -526.9331
   4   2.0000     -19.356159      -526.7079
   5   2.0000     -14.508108      -394.7857
   6   2.0000     -14.507650      -394.7732
   7   2.0000     -10.504480      -285.8414
   8   2.0000     -10.490765      -285.4682
   9   2.0000     -10.421393      -283.5805
  10   2.0000     -10.410740      -283.2906
  11   2.0000     -10.406202      -283.1672
  12   2.0000     -10.374590      -282.3070
  13   2.0000     -10.366584      -282.0891
  14   2.0000     -10.366339      -282.0824
  15   2.0000     -10.364806      -282.0407
  16   2.0000     -10.364727      -282.0386
  17   2.0000     -10.364554      -282.0338
  18   2.0000     -10.364312      -282.0273
  19   2.0000     -10.363417      -282.0029
  20   2.0000     -10.363387      -282.0021
  21   2.0000     -10.363113      -281.9946
  22   2.0000     -10.361826      -281.9596
  23   2.0000     -10.361060      -281.9388
  24   2.0000     -10.357059      -281.8299
  25   2.0000      -1.241950       -33.7952
  26   2.0000      -1.228497       -33.4291
  27   2.0000      -1.188088       -32.3295
  28   2.0000      -1.153815       -31.3969
  29   2.0000      -1.150881       -31.3171
  30   2.0000      -1.033028       -28.1101
  31   2.0000      -1.025250       -27.8985
  32   2.0000      -0.989464       -26.9247
  33   2.0000      -0.986518       -26.8445
  34   2.0000      -0.913300       -24.8522
  35   2.0000      -0.908362       -24.7178
  36   2.0000      -0.878213       -23.8974
  37   2.0000      -0.875185       -23.8150
  38   2.0000      -0.859096       -23.3772
  39   2.0000      -0.841676       -22.9032
  40   2.0000      -0.793014       -21.5790
  41   2.0000      -0.789890       -21.4940
  42   2.0000      -0.744098       -20.2479
  43   2.0000      -0.730868       -19.8879
  44   2.0000      -0.720453       -19.6045
  45   2.0000      -0.719227       -19.5712
  46   2.0000      -0.695073       -18.9139
  47   2.0000      -0.692812       -18.8524
  48   2.0000      -0.659106       -17.9352
  49   2.0000      -0.639585       -17.4040
  50   2.0000      -0.637986       -17.3605
  51   2.0000      -0.629570       -17.1315
  52   2.0000      -0.610378       -16.6092
  53   2.0000      -0.608493       -16.5579
  54   2.0000      -0.598979       -16.2991
  55   2.0000      -0.593628       -16.1534
  56   2.0000      -0.587324       -15.9819
  57   2.0000      -0.587212       -15.9789
  58   2.0000      -0.582341       -15.8463
  59   2.0000      -0.564812       -15.3693
  60   2.0000      -0.562724       -15.3125
  61   2.0000      -0.557932       -15.1821
  62   2.0000      -0.550158       -14.9706
  63   2.0000      -0.542933       -14.7740
  64   2.0000      -0.538418       -14.6511
  65   2.0000      -0.532101       -14.4792
  66   2.0000      -0.530792       -14.4436
  67   2.0000      -0.519736       -14.1427
  68   2.0000      -0.518598       -14.1118
  69   2.0000      -0.513451       -13.9717
  70   2.0000      -0.504580       -13.7303
  71   2.0000      -0.496710       -13.5162
  72   2.0000      -0.488830       -13.3017
  73   2.0000      -0.484636       -13.1876
  74   2.0000      -0.478872       -13.0308
  75   2.0000      -0.468241       -12.7415
  76   2.0000      -0.460238       -12.5237
  77   2.0000      -0.448011       -12.1910
  78   2.0000      -0.445633       -12.1263
  79   2.0000      -0.444003       -12.0819
  80   2.0000      -0.443815       -12.0768
  81   2.0000      -0.432020       -11.7559
  82   2.0000      -0.430927       -11.7261
  83   2.0000      -0.423500       -11.5240
  84   2.0000      -0.392739       -10.6870
  85   2.0000      -0.386561       -10.5189
  86   2.0000      -0.357960        -9.7406
  87   2.0000      -0.352337        -9.5876
  88   2.0000      -0.348279        -9.4772
  89   2.0000      -0.339781        -9.2459
  90   2.0000      -0.339134        -9.2283
  91   2.0000      -0.308011        -8.3814
  92   0.0000       0.045326         1.2334
  93   0.0000       0.052354         1.4246
  94   0.0000       0.067901         1.8477
  95   0.0000       0.074088         2.0160
  96   0.0000       0.075100         2.0436

MULLIKEN ATOMIC CHARGES
-----------------------
   0 N :   -0.440868
   1 C :   -0.036244
   2 C :    0.168817
   3 O :   -0.301726
   4 O :   -0.265502
   5 C :   -0.475704
   6 C :   -0.028699
   7 C :   -0.138241
   8 C :   -0.118847
   9 C :   -0.093317
  10 C :   -0.148468
  11 C :   -0.086910
  12 H :    0.191057
  13 H :    0.181722
  14 H :    0.205642
  15 H :    0.149958
  16 H :    0.137675
  17 H :    0.128090
  18 H :    0.125499
  19 H :    0.124398
  20 H :    0.219542
  21 H :    0.203141
  22 H :    0.296790
  23 N :   -0.404338
  24 C :   -0.179369
  25 C :    0.169233
  26 O :   -0.301673
  27 O :   -0.276356
  28 C :   -0.413276
  29 C :   -0.028375
  30 C :   -0.110881
  31 C :   -0.060613
  32 C :   -0.137931
  33 C :    0.089704
  34 O :   -0.333893
  35 C :   -0.146226
  36 H :    0.232062
  37 H :    0.204945
  38 H :    0.171867
  39 H :    0.189377
  40 H :    0.147909
  41 H :    0.130696
  42 H :    0.138426
  43 H :    0.135372
  44 H :    0.283871
  45 H :    0.301726
  46 H :    0.199937
Sum of atomic charges:   -0.0000000

LOEWDIN ATOMIC CHARGES
----------------------
   0 N :   -0.201214
   1 C :   -0.055723
   2 C :    0.159299
   3 O :   -0.157070
   4 O :   -0.219977
   5 C :   -0.106918
   6 C :   -0.074153
   7 C :   -0.075762
   8 C :   -0.069270
   9 C :   -0.065542
  10 C :   -0.082801
  11 C :   -0.072670
  12 H :    0.064896
  13 H :    0.086201
  14 H :    0.094582
  15 H :    0.085352
  16 H :    0.081076
  17 H :    0.079153
  18 H :    0.076682
  19 H :    0.077036
  20 H :    0.114394
  21 H :    0.111237
  22 H :    0.150795
  23 N :   -0.207238
  24 C :   -0.064946
  25 C :    0.116936
  26 O :   -0.247738
  27 O :   -0.137787
  28 C :   -0.111585
  29 C :   -0.099725
  30 C :   -0.057041
  31 C :   -0.053568
  32 C :   -0.087691
  33 C :    0.045329
  34 O :   -0.173046
  35 C :   -0.115008
  36 H :    0.122230
  37 H :    0.096503
  38 H :    0.086993
  39 H :    0.089204
  40 H :    0.088991
  41 H :    0.083761
  42 H :    0.089861
  43 H :    0.080965
  44 H :    0.167078
  45 H :    0.180091
  46 H :    0.107830

  Mayer bond orders larger than 0.100000
B(  0-N ,  1-C ) :   0.8569 B(  0-N , 20-H ) :   0.9347 B(  0-N , 21-H ) :   0.9456
B(  1-C ,  2-C ) :   0.8717 B(  1-C ,  5-C ) :   0.8128 B(  1-C , 12-H ) :   0.9898
B(  2-C ,  3-O ) :   1.1160 B(  2-C ,  4-O ) :   2.0871 B(  3-O , 22-H ) :   0.8973
B(  5-C ,  6-C ) :   0.8495 B(  5-C , 13-H ) :   1.0041 B(  5-C , 14-H ) :   1.0089
B(  6-C ,  7-C ) :   1.4542 B(  6-C ,  8-C ) :   1.4225 B(  7-C , 11-C ) :   1.3574
B(  7-C , 15-H ) :   0.9545 B(  8-C ,  9-C ) :   1.3864 B(  8-C , 16-H ) :   0.9556
B(  9-C , 10-C ) :   1.3987 B(  9-C , 17-H ) :   0.9660 B( 10-C , 11-C ) :   1.3928
B( 10-C , 18-H ) :   0.9743 B( 11-C , 19-H ) :   0.9730 B( 23-N , 24-C ) :   1.0783
B( 23-N , 28-C ) :  -0.1103 B( 23-N , 36-H ) :   0.9259 B( 23-N , 46-H ) :   0.9662
B( 24-C , 25-C ) :   0.8399 B( 24-C , 28-C ) :   0.8431 B( 24-C , 37-H ) :   0.9875
B( 25-C , 26-O ) :   2.0701 B( 25-C , 27-O ) :   1.1731 B( 27-O , 45-H ) :   0.8790
B( 28-C , 29-C ) :   0.8011 B( 28-C , 38-H ) :   1.0222 B( 28-C , 39-H ) :   1.0070
B( 29-C , 30-C ) :   1.4268 B( 29-C , 31-C ) :   1.3936 B( 30-C , 35-C ) :   1.3582
B( 30-C , 40-H ) :   0.9528 B( 31-C , 32-C ) :   1.4036 B( 31-C , 41-H ) :   0.9650
B( 32-C , 33-C ) :   1.4044 B( 32-C , 42-H ) :   0.9613 B( 33-C , 34-O ) :   1.1626
B( 33-C , 35-C ) :   1.3284 B( 34-O , 44-H ) :   0.9065 B( 35-C , 43-H ) :   0.9357

-----------------------------------------------------------------------------
         ABSORPTION SPECTRUM VIA TRANSITION ELECTRIC DIPOLE MOMENTS
-----------------------------------------------------------------------------
State   Energy    Wavelength  fosc       T2         TX        TY        TZ
        (cm-1)      (nm)               (au**2)     (au)      (au)      (au)
-----------------------------------------------------------------------------
   1 2343730.4      4.3   0.115821760   0.01627   0.00093  -0.00178   0.12753
   2 2354571.6      4.2   0.012378741   0.00173  -0.00256   0.00135  -0.04150
   3 2354620.0      4.2   0.019516038   0.00273  -0.00179  -0.00051   0.05220
   4 2358923.2      4.2   0.000243987   0.00003   0.00017  -0.00050  -0.00581
   5 2361947.5      4.2   0.000003558   0.00000   0.00049  -0.00042  -0.00028
   6 2362119.9      4.2   0.000105363   0.00001   0.00074   0.00052  -0.00372
   7 2362537.1      4.2   0.001846652   0.00026   0.00013   0.00021   0.01604
   8 2364034.1      4.2   0.000001969   0.00000  -0.00045   0.00001   0.00026
   9 2364288.2      4.2   0.000213573   0.00003  -0.00025   0.00043  -0.00543
  10 2364822.3      4.2   0.000050505   0.00001   0.00001  -0.00032   0.00263
  11 2364940.5      4.2   0.000055397   0.00001  -0.00111   0.00010   0.00254
  12 2365273.2      4.2   0.000487081   0.00007   0.00118  -0.00008   0.00815
  13 2365441.7      4.2   0.000031962   0.00000  -0.00028  -0.00069   0.00197
  14 2371984.0      4.2   0.000011178   0.00000   0.00099  -0.00068   0.00032
  15 2376825.7      4.2   0.000001827   0.00000   0.00028   0.00039  -0.00016
  16 2378277.9      4.2   0.000003923   0.00000   0.00003  -0.00043   0.00060
  17 2394819.7      4.2   0.000000218   0.00000  -0.00007  -0.00005  -0.00015
  18 2395934.8      4.2   0.000007604   0.00000  -0.00010  -0.00004  -0.00102
  19 2423356.5      4.1   0.137012535   0.01861  -0.00686  -0.13623  -0.00278
  20 2426579.0      4.1   0.118044660   0.01602  -0.12628   0.00809   0.00154
  21 2431925.9      4.1   0.061717044   0.00835  -0.08001  -0.04419  -0.00102
  22 2431976.6      4.1   0.030890028   0.00418   0.05545  -0.03327   0.00035
  23 2432109.5      4.1   0.046566806   0.00630  -0.03792   0.06969  -0.00280
  24 2439542.4      4.1   0.003601097   0.00049  -0.01613  -0.01503   0.00015
  25 2441402.2      4.1   0.005075119   0.00068  -0.00189   0.02608  -0.00085
  26 2444350.6      4.1   0.000388109   0.00005  -0.00156  -0.00703  -0.00060
  27 2444707.6      4.1   0.000513064   0.00007  -0.00243  -0.00795   0.00003
  28 2445650.9      4.1   0.000167269   0.00002   0.00303  -0.00365  -0.00006
  29 2446469.4      4.1   0.000698217   0.00009  -0.00158   0.00956  -0.00030
  30 2447037.1      4.1   0.001346691   0.00018   0.00788  -0.01089   0.00059
  31 2447297.6      4.1   0.000001370   0.00000   0.00018  -0.00023  -0.00031
  32 2447511.3      4.1   0.000017853   0.00000  -0.00072  -0.00135   0.00022
  33 2447776.2      4.1   0.000434256   0.00006  -0.00343  -0.00683   0.00015
  34 2448083.1      4.1   0.000005250   0.00000   0.00065  -0.00050   0.00016
  35 2448177.7      4.1   0.000007450   0.00000   0.00069   0.00072   0.00011
  36 2448384.5      4.1   0.000001449   0.00000  -0.00002  -0.00043   0.00011
  37 2448532.6      4.1   0.000018057   0.00000  -0.00126   0.00091   0.00007
  38 2448601.6      4.1   0.000436001   0.00006   0.00765  -0.00020  -0.00001
  39 2449397.5      4.1   0.000000628   0.00000   0.00001   0.00029  -0.00000
  40 2449735.2      4.1   0.000015236   0.00000  -0.00139  -0.00020  -0.00029
  41 2450216.1      4.1   0.000012268   0.00000   0.00107   0.00067  -0.00020
  42 2450323.7      4.1   0.000008576   0.00000   0.00068  -0.00078  -0.00028
  43 2450714.7      4.1   0.000185177   0.00002   0.00286   0.00409  -0.00001
  44 2450738.3      4.1   0.000000295   0.00000   0.00002   0.00018   0.00008
  45 2452954.6      4.1   0.000237501   0.00003   0.00010   0.00329   0.00459
  46 2456990.9      4.1   0.000015490   0.00000   0.00139   0.00018  -0.00035
  47 2459767.3      4.1   0.000002054   0.00000   0.00032   0.00041  -0.00008
  48 2461555.9      4.1   0.000000915   0.00000  -0.00001  -0.00035   0.00005
  49 2462051.7      4.1   0.000002006   0.00000   0.00041   0.00024   0.00021
  50 2463665.1      4.1   0.000000176   0.00000  -0.00005  -0.00010   0.00010
  51 2468412.9      4.1   0.003719999   0.00050  -0.00143  -0.02125   0.00651
  52 2476581.7      4.0   0.043261622   0.00575  -0.06502   0.03887  -0.00358
  53 2477801.9      4.0   0.000000130   0.00000   0.00005   0.00012  -0.00003
  54 2477816.6      4.0   0.000222924   0.00003  -0.00027  -0.00507   0.00196
  55 2477843.3      4.0   0.032858551   0.00437  -0.05348  -0.03807  -0.00752
  56 2480040.8      4.0   0.000000928   0.00000  -0.00012   0.00008  -0.00032
  57 2480942.7      4.0   0.000010927   0.00000   0.00076  -0.00089  -0.00029
  58 2483680.3      4.0   0.000731950   0.00010   0.00110   0.00975  -0.00084
  59 2485690.0      4.0   0.000291864   0.00004  -0.00236   0.00572   0.00056
  60 2485890.5      4.0   0.001868941   0.00025  -0.01529   0.00335  -0.00159
  61 2486982.9      4.0   0.000336489   0.00004  -0.00656   0.00105  -0.00069
  62 2488140.8      4.0   0.000000047   0.00000  -0.00006   0.00004   0.00002
  63 2488549.7      4.0   0.000004001   0.00000  -0.00056  -0.00046  -0.00004
  64 2488981.6      4.0   0.000021425   0.00000   0.00130   0.00104   0.00022
  65 2489100.8      4.0   0.000002310   0.00000   0.00054   0.00007   0.00008
  66 2489620.4      4.0   0.000368721   0.00005  -0.00563  -0.00400  -0.00101
  67 2489628.6      4.0   0.000210211   0.00003  -0.00408  -0.00332  -0.00032
  68 2496046.0      4.0   0.000030309   0.00000  -0.00055   0.00143   0.00129
  69 2500922.8      4.0   0.000000255   0.00000  -0.00004  -0.00016   0.00009
  70 2502388.8      4.0   0.000000106   0.00000  -0.00000  -0.00007  -0.00010
  71 2518901.9      4.0   0.000000047   0.00000  -0.00001   0.00003  -0.00007
  72 2519935.0      4.0   0.000048758   0.00001  -0.00001   0.00252   0.00002
  73 2524719.5      4.0   0.200749160   0.02618   0.00547   0.00397  -0.16165
  74 2526031.0      4.0   0.266717584   0.03476  -0.00649   0.00918  -0.18610
  75 2561825.3      3.9   0.002920846   0.00038   0.00071  -0.00048  -0.01935
  76 2562377.9      3.9   0.008942780   0.00115   0.00034   0.00163   0.03386
  77 2562567.4      3.9   0.000195985   0.00003  -0.00449   0.00077   0.00210
  78 2566130.9      3.9   0.000038668   0.00000  -0.00047  -0.00025  -0.00216
  79 2566255.4      3.9   0.000319127   0.00004   0.00007  -0.00049   0.00638
  80 2567757.2      3.9   0.000002279   0.00000   0.00002   0.00033  -0.00043
  81 2568528.9      3.9   0.000001224   0.00000  -0.00037   0.00000   0.00015
  82 2568687.9      3.9   0.000016139   0.00000   0.00021  -0.00038   0.00137
  83 2568837.7      3.9   0.000002664   0.00000  -0.00030  -0.00013   0.00049
  84 2569398.6      3.9   0.000609049   0.00008   0.00037  -0.00030   0.00882
  85 2569742.5      3.9   0.000000693   0.00000   0.00005   0.00014  -0.00026
  86 2577224.8      3.9   0.000003887   0.00000   0.00040   0.00017   0.00056
  87 2580882.9      3.9   0.000000111   0.00000   0.00001   0.00009   0.00007
  88 2582035.4      3.9   0.000001808   0.00000   0.00048   0.00004  -0.00005
  89 2589333.5      3.9   0.002823564   0.00036  -0.00201   0.00347  -0.01852
  90 2592141.1      3.9   0.000472783   0.00006   0.00716  -0.00297  -0.00008
  91 2592894.1      3.9   0.000699444   0.00009  -0.00187  -0.00920   0.00087
  92 2592990.9      3.9   0.000020065   0.00000   0.00122   0.00062  -0.00082
  93 2593720.8      3.9   0.000418736   0.00005  -0.00317  -0.00156  -0.00638
  94 2594919.1      3.9   0.000000997   0.00000   0.00005  -0.00022   0.00028
  95 2595067.7      3.9   0.240831963   0.03055   0.03797  -0.17055  -0.00478
  96 2595275.5      3.9   0.175528774   0.02227   0.11607   0.09331   0.00943
  97 2595493.0      3.9   0.001904357   0.00024  -0.01472   0.00499   0.00023
  98 2595633.6      3.9   0.020900200   0.00265  -0.04409   0.02624   0.00431
  99 2595796.4      3.9   0.068884486   0.00874  -0.07423   0.05569   0.01121
 100 2596004.3      3.9   0.000971101   0.00012   0.00775  -0.00780  -0.00150
 101 2596701.3      3.9   0.000003063   0.00000   0.00019  -0.00057   0.00016
 102 2598807.9      3.8   0.000000038   0.00000   0.00006  -0.00002   0.00002
 103 2600436.2      3.8   0.000001864   0.00000  -0.00014  -0.00027  -0.00038
 104 2600994.6      3.8   0.014140393   0.00179   0.00305  -0.02376  -0.03487
 105 2601905.9      3.8   0.005749209   0.00073   0.00662   0.00852  -0.02472
 106 2604102.2      3.8   0.000061963   0.00001   0.00031  -0.00162  -0.00226
 107 2607868.4      3.8   0.000000015   0.00000   0.00002  -0.00004   0.00001
 108 2609065.6      3.8   0.000002178   0.00000   0.00001  -0.00033  -0.00040
 109 2619447.0      3.8   0.118826378   0.01493  -0.10105   0.06871  -0.00165
 110 2625773.0      3.8   0.000000129   0.00000  -0.00005  -0.00011  -0.00003
 111 2626696.5      3.8   0.106110110   0.01330  -0.07402  -0.08822   0.00605
 112 2627377.0      3.8   0.000006385   0.00000   0.00031  -0.00053   0.00065
 113 2631271.8      3.8   0.039444036   0.00494   0.00178  -0.00665   0.06991
 114 2634253.1      3.8   0.001242290   0.00016   0.00263   0.01218  -0.00003
 115 2636561.1      3.8   0.000677999   0.00008   0.00322   0.00835  -0.00214
 116 2636943.0      3.8   0.016064756   0.00201   0.00117  -0.03515   0.02773
 117 2639124.8      3.8   0.000162049   0.00002   0.00297  -0.00333   0.00057
 118 2639373.2      3.8   0.001547805   0.00019  -0.01336  -0.00363  -0.00118
 119 2640997.6      3.8   0.000791571   0.00010  -0.00587   0.00799   0.00063
 120 2641745.5      3.8   0.000281987   0.00004  -0.00466   0.00352  -0.00102
 121 2642653.7      3.8   0.000176328   0.00002  -0.00171  -0.00433   0.00057
 122 2643242.4      3.8   0.000506917   0.00006   0.00183  -0.00773   0.00012
 123 2643436.4      3.8   0.000001247   0.00000   0.00003   0.00036   0.00016
 124 2644096.2      3.8   0.000006729   0.00000  -0.00021  -0.00023   0.00086
 125 2644302.8      3.8   0.000011314   0.00000  -0.00107  -0.00037   0.00035
 126 2644360.6      3.8   0.000003020   0.00000  -0.00023   0.00054   0.00018
 127 2644485.5      3.8   0.000006019   0.00000  -0.00084   0.00006   0.00018
 128 2644956.3      3.8   0.000569462   0.00007   0.00736   0.00398  -0.00094
 129 2645184.0      3.8   0.000002593   0.00000  -0.00042  -0.00019   0.00033
 130 2645203.3      3.8   0.000003536   0.00000   0.00037   0.00043   0.00035
 131 2645402.4      3.8   0.000008720   0.00000  -0.00025  -0.00027  -0.00098
 132 2645439.7      3.8   0.000810625   0.00010  -0.00443  -0.00367   0.00823
 133 2645605.6      3.8   0.000001514   0.00000  -0.00024   0.00034   0.00012
 134 2646081.2      3.8   0.000283660   0.00004  -0.00062  -0.00590  -0.00035
 135 2646365.2      3.8   0.000011753   0.00000  -0.00016   0.00100  -0.00066
 136 2648289.9      3.8   0.000424809   0.00005  -0.00001   0.00727  -0.00012
 137 2648670.4      3.8   0.000042275   0.00001   0.00203   0.00104  -0.00018
 138 2649369.1      3.8   0.000582906   0.00007   0.00032   0.00850  -0.00034
 139 2650874.9      3.8   0.000000087   0.00000  -0.00005   0.00004   0.00008
 140 2651292.1      3.8   0.000034697   0.00000  -0.00033  -0.00205  -0.00011
 141 2651386.3      3.8   0.000018353   0.00000  -0.00031   0.00141   0.00043
 142 2651462.6      3.8   0.000016924   0.00000   0.00026   0.00004   0.00143
 143 2651592.7      3.8   0.000349549   0.00004   0.00055  -0.00653  -0.00068
 144 2651992.8      3.8   0.000124528   0.00002   0.00116   0.00375   0.00022
 145 2652026.0      3.8   0.000021993   0.00000   0.00008   0.00164   0.00018
 146 2652494.8      3.8   0.000001349   0.00000   0.00009   0.00036  -0.00017
 147 2653739.3      3.8   0.000042378   0.00001   0.00056  -0.00220   0.00032
 148 2656325.0      3.8   0.000000331   0.00000  -0.00013  -0.00004  -0.00015
 149 2656974.2      3.8   0.012004583   0.00149  -0.00289   0.03840   0.00204
 150 2657525.9      3.8   0.000000845   0.00000   0.00024   0.00018  -0.00012
 151 2657685.4      3.8   0.000000396   0.00000   0.00002   0.00008   0.00021
 152 2658816.4      3.8   0.000002104   0.00000   0.00009  -0.00049   0.00009
 153 2659915.1      3.8   0.000002538   0.00000   0.00038  -0.00027   0.00031
 154 2661254.7      3.8   0.002738890   0.00034  -0.00394   0.01780   0.00255
 155 2663651.5      3.8   0.000000584   0.00000   0.00012   0.00000   0.00024
 156 2664864.7      3.8   0.000000445   0.00000   0.00017   0.00016  -0.00004
 157 2674160.4      3.7   0.113891099   0.01402  -0.00596  -0.01213  -0.11764
 158 2674260.5      3.7   0.000000382   0.00000  -0.00005  -0.00019  -0.00010
 159 2675378.8      3.7   0.000002470   0.00000   0.00004  -0.00030  -0.00046
 160 2675507.4      3.7   0.000000058   0.00000  -0.00001  -0.00007  -0.00005
 161 2676955.9      3.7   0.000002927   0.00000  -0.00019   0.00057  -0.00004
 162 2679531.3      3.7   0.030613116   0.00376  -0.05323  -0.02869   0.01021
 163 2681524.0      3.7   0.000000068   0.00000  -0.00009   0.00001  -0.00003
 164 2683139.6      3.7   0.000002527   0.00000  -0.00043  -0.00032  -0.00016
 165 2684025.5      3.7   0.010865856   0.00133  -0.03585   0.00662  -0.00192
 166 2687508.2      3.7   0.000004912   0.00000  -0.00053  -0.00056  -0.00010
 167 2687851.6      3.7   0.001751636   0.00021   0.00407   0.00323   0.01370
 168 2688585.2      3.7   0.001188189   0.00015  -0.00326   0.01161  -0.00038
 169 2689848.0      3.7   0.003819997   0.00047   0.01884  -0.01020  -0.00294
 170 2690939.2      3.7   0.004037478   0.00049   0.02205   0.00016  -0.00281
 171 2691319.7      3.7   0.004453957   0.00054   0.01143   0.02019   0.00260
 172 2691490.1      3.7   0.000228806   0.00003   0.00362  -0.00371  -0.00106
 173 2692224.3      3.7   0.000143288   0.00002  -0.00028  -0.00405   0.00103
 174 2692505.9      3.7   0.000795462   0.00010  -0.00925  -0.00254   0.00228
 175 2692780.4      3.7   0.000010003   0.00000   0.00072   0.00021  -0.00082
 176 2692824.1      3.7   0.000216612   0.00003  -0.00040   0.00056   0.00510
 177 2692996.3      3.7   0.000987013   0.00012  -0.01096   0.00063   0.00025
 178 2693456.9      3.7   0.007178077   0.00088  -0.02925   0.00415   0.00214
 179 2693491.6      3.7   0.000154357   0.00002  -0.00381   0.00170   0.00120
 180 2693594.9      3.7   0.000035098   0.00000  -0.00089   0.00032   0.00184
 181 2693795.8      3.7   0.000000202   0.00000  -0.00011   0.00010  -0.00006
 182 2693977.2      3.7   0.000128838   0.00002   0.00162   0.00169   0.00320
 183 2694026.5      3.7   0.000050673   0.00001  -0.00056  -0.00109   0.00217
 184 2694445.5      3.7   0.000001901   0.00000   0.00009   0.00043  -0.00019
 185 2694619.4      3.7   0.000008856   0.00000   0.00090   0.00052  -0.00001
 186 2694898.7      3.7   0.000015414   0.00000   0.00125   0.00007   0.00056
 187 2695580.6      3.7   0.000004959   0.00000  -0.00061  -0.00041  -0.00027
 188 2696069.0      3.7   0.002687677   0.00033   0.01488   0.01028   0.00101
 189 2700855.2      3.7   0.000015018   0.00000   0.00042   0.00128   0.00008
 190 2702953.1      3.7   0.000025703   0.00000   0.00026   0.00147   0.00094
 191 2705541.5      3.7   0.000004092   0.00000   0.00033   0.00047  -0.00041
 192 2706706.2      3.7   0.000000067   0.00000   0.00004   0.00004  -0.00007
 193 2707053.6      3.7   0.000004154   0.00000   0.00005  -0.00070  -0.00011
 194 2707973.1      3.7   0.000000600   0.00000  -0.00009  -0.00025   0.00000
 195 2715880.7      3.7   0.000793585   0.00010   0.00977  -0.00064  -0.00064
 196 2720746.2      3.7   0.000237421   0.00003   0.00498   0.00037   0.00196

Dispersion correction           -0.082562232
FINAL SINGLE POINT ENERGY     -1186.550160635821

DIPOLE MOMENT
-------------
                                X             Y             Z
Electronic contribution:     -1.08586       0.26021      -4.84341
Nuclear contribution   :      1.75884      -1.20973       5.02942
                        -----------------------------------------
Total Dipole Moment    :      0.67298      -0.94952       0.18601
                        -----------------------------------------
Magnitude (a.u.)       :      1.17860
Magnitude (Debye)      :      2.99576

Rotational constants in cm-1:     0.007814     0.004928     0.003403
Rotational constants in MHz :   234.245671   147.745078   102.021787

                             ****ORCA TERMINATED NORMALLY****
TOTAL RUN TIME: 0 days 0 hours 2 minutes 17 seconds 805 msec
