                         Program Version 4.2.1 -  RELEASE  -
|  1> ! wb97m-d3bj zora-tzvp autoaux rijcosx veryTightSCF Grid4 nofinalgrid zora
|  2> ! NormalPrint
|  3>
|  4> %maxcore 7500
|  5> %pal
|  6> nprocs 72
|  7> end
|  8>
|  9> %rocis NRoots 200
| 10> MaxDim   10
| 11> maxcore  10000
| 12> MaxIter  50
| 13> RTol     1e-6
| 14> DoPNO    true
| 15> TcutPNO  1e-11
| 16> XASElems 6
| 17> OrbWin = 7,24,0,330
| 18> doquad true
| 19> SOC  true
| 20> DoLowerMult       True
| 21> DoHigherMult      True
| 22> DoDFTCIS true
| 23> DFTCIS_c = 0.18, 0.20, 0.40
| 24> end
| 25>
| 26>
| 27> * xyz 0 1
| 28> N        -1.161000    3.380000    2.222000
| 29> C        -0.029000    3.640000    1.356000
| 30> C         0.140000    5.138000    1.152000
| 31> O         1.439000    5.661000    1.295000
| 32> O        -0.871000    5.781000    0.877000
| 33> C        -0.222000    3.000000   -0.010000
| 34> C        -0.206000    1.490000   -0.011000
| 35> C        -1.411000    0.777000   -0.003000
| 36> C         1.014000    0.803000   -0.021000
| 37> C         1.029000   -0.598000   -0.023000
| 38> C        -0.176000   -1.310000   -0.014000
| 39> C        -1.397000   -0.623000   -0.005000
| 40> H         0.874000    3.237000    1.816000
| 41> H         0.578000    3.348000   -0.663000
| 42> H        -1.174000    3.337000   -0.420000
| 43> H        -2.352000    1.307000    0.004000
| 44> H         1.943000    1.352000   -0.027000
| 45> H         1.969000   -1.128000   -0.030000
| 46> H        -0.166000   -2.390000   -0.016000
| 47> H        -2.325000   -1.173000    0.001000
| 48> H        -1.265000    2.383000    2.352000
| 49> H        -1.008000    3.821000    3.118000
| 50> H         1.422000    6.609000    1.146000
| 51> N         0.111000    4.962000   -5.408000
| 52> C         0.136000    3.503000   -5.385000
| 53> C        -0.956000    3.021000   -6.338000
| 54> O        -2.077000    3.460000   -6.439000
| 55> O        -0.516000    2.005000   -7.088000
| 56> C        -0.178000    2.969000   -3.970000
| 57> C        -0.177000    1.478000   -3.961000
| 58> C        -1.382000    0.770000   -3.951000
| 59> C         1.042000    0.791000   -3.981000
| 60> C         1.067000   -0.598000   -3.975000
| 61> C        -0.150000   -1.282000   -3.930000
| 62> O        -0.063000   -2.640000   -3.916000
| 63> C        -1.380000   -0.621000   -3.932000
| 64> H        -0.805000    5.407000   -5.348000
| 65> H         1.154000    3.130000   -5.707000
| 66> H         0.579000    3.377000   -3.263000
| 67> H        -1.141000    3.381000   -3.602000
| 68> H        -2.334000    1.310000   -3.957000
| 69> H         1.982000    1.348000   -3.996000
| 70> H         2.008000   -1.146000   -3.999000
| 71> H        -2.314000   -1.180000   -3.931000
| 72> H        -0.848000   -3.063000   -3.471000
| 73> H        -1.200000    1.616000   -7.712000
| 74> H         0.540000    5.262000   -6.273000
| 75> *
| 76>
| 77>                          ****END OF INPUT****

CARTESIAN COORDINATES (ANGSTROEM)
---------------------------------
  N     -1.161000    3.380000    2.222000
  C     -0.029000    3.640000    1.356000
  C      0.140000    5.138000    1.152000
  O      1.439000    5.661000    1.295000
  O     -0.871000    5.781000    0.877000
  C     -0.222000    3.000000   -0.010000
  C     -0.206000    1.490000   -0.011000
  C     -1.411000    0.777000   -0.003000
  C      1.014000    0.803000   -0.021000
  C      1.029000   -0.598000   -0.023000
  C     -0.176000   -1.310000   -0.014000
  C     -1.397000   -0.623000   -0.005000
  H      0.874000    3.237000    1.816000
  H      0.578000    3.348000   -0.663000
  H     -1.174000    3.337000   -0.420000
  H     -2.352000    1.307000    0.004000
  H      1.943000    1.352000   -0.027000
  H      1.969000   -1.128000   -0.030000
  H     -0.166000   -2.390000   -0.016000
  H     -2.325000   -1.173000    0.001000
  H     -1.265000    2.383000    2.352000
  H     -1.008000    3.821000    3.118000
  H      1.422000    6.609000    1.146000
  N      0.111000    4.962000   -5.408000
  C      0.136000    3.503000   -5.385000
  C     -0.956000    3.021000   -6.338000
  O     -2.077000    3.460000   -6.439000
  O     -0.516000    2.005000   -7.088000
  C     -0.178000    2.969000   -3.970000
  C     -0.177000    1.478000   -3.961000
  C     -1.382000    0.770000   -3.951000
  C      1.042000    0.791000   -3.981000
  C      1.067000   -0.598000   -3.975000
  C     -0.150000   -1.282000   -3.930000
  O     -0.063000   -2.640000   -3.916000
  C     -1.380000   -0.621000   -3.932000
  H     -0.805000    5.407000   -5.348000
  H      1.154000    3.130000   -5.707000
  H      0.579000    3.377000   -3.263000
  H     -1.141000    3.381000   -3.602000
  H     -2.334000    1.310000   -3.957000
  H      1.982000    1.348000   -3.996000
  H      2.008000   -1.146000   -3.999000
  H     -2.314000   -1.180000   -3.931000
  H     -0.848000   -3.063000   -3.471000
  H     -1.200000    1.616000   -7.712000
  H      0.540000    5.262000   -6.273000

 Total Charge           Charge          ....    0
 Multiplicity           Mult            ....    1
 Number of Electrons    NEL             ....  184
 Basis Dimension        Dim             ....  632

ORBITAL ENERGIES
----------------

  NO   OCC          E(Eh)            E(eV)
   0   2.0000     -19.421990      -528.4992
   1   2.0000     -19.413996      -528.2817
   2   2.0000     -19.392267      -527.6904
   3   2.0000     -19.364435      -526.9331
   4   2.0000     -19.356159      -526.7079
   5   2.0000     -14.508108      -394.7857
   6   2.0000     -14.507650      -394.7732
   7   2.0000     -10.504480      -285.8414
   8   2.0000     -10.490765      -285.4682
   9   2.0000     -10.421393      -283.5805
  10   2.0000     -10.410740      -283.2906
  11   2.0000     -10.406202      -283.1672
  12   2.0000     -10.374590      -282.3070
  13   2.0000     -10.366584      -282.0891
  14   2.0000     -10.366339      -282.0824
  15   2.0000     -10.364806      -282.0407
  16   2.0000     -10.364727      -282.0386
  17   2.0000     -10.364554      -282.0338
  18   2.0000     -10.364312      -282.0273
  19   2.0000     -10.363417      -282.0029
  20   2.0000     -10.363387      -282.0021
  21   2.0000     -10.363113      -281.9946
  22   2.0000     -10.361826      -281.9596
  23   2.0000     -10.361060      -281.9388
  24   2.0000     -10.357059      -281.8299
  25   2.0000      -1.241950       -33.7952
  26   2.0000      -1.228497       -33.4291
  27   2.0000      -1.188088       -32.3295
  28   2.0000      -1.153815       -31.3969
  29   2.0000      -1.150881       -31.3171
  30   2.0000      -1.033028       -28.1101
  31   2.0000      -1.025250       -27.8985
  32   2.0000      -0.989464       -26.9247
  33   2.0000      -0.986518       -26.8445
  34   2.0000      -0.913300       -24.8522
  35   2.0000      -0.908362       -24.7178
  36   2.0000      -0.878213       -23.8974
  37   2.0000      -0.875185       -23.8150
  38   2.0000      -0.859096       -23.3772
  39   2.0000      -0.841676       -22.9032
  40   2.0000      -0.793014       -21.5790
  41   2.0000      -0.789890       -21.4940
  42   2.0000      -0.744098       -20.2479
  43   2.0000      -0.730868       -19.8879
  44   2.0000      -0.720453       -19.6045
  45   2.0000      -0.719227       -19.5712
  46   2.0000      -0.695073       -18.9139
  47   2.0000      -0.692812       -18.8524
  48   2.0000      -0.659106       -17.9352
  49   2.0000      -0.639585       -17.4040
  50   2.0000      -0.637986       -17.3605
  51   2.0000      -0.629570       -17.1315
  52   2.0000      -0.610378       -16.6092
  53   2.0000      -0.608493       -16.5579
  54   2.0000      -0.598979       -16.2991
  55   2.0000      -0.593628       -16.1534
  56   2.0000      -0.587324       -15.9819
  57   2.0000      -0.587212       -15.9789
  58   2.0000      -0.582341       -15.8463
  59   2.0000      -0.564812       -15.3693
  60   2.0000      -0.562724       -15.3125
  61   2.0000      -0.557932       -15.1821
  62   2.0000      -0.550158       -14.9706
  63   2.0000      -0.542933       -14.7740
  64   2.0000      -0.538418       -14.6511
  65   2.0000      -0.532101       -14.4792
  66   2.0000      -0.530792       -14.4436
  67   2.0000      -0.519736       -14.1427
  68   2.0000      -0.518598       -14.1118
  69   2.0000      -0.513451       -13.9717
  70   2.0000      -0.504580       -13.7303
  71   2.0000      -0.496710       -13.5162
  72   2.0000      -0.488830       -13.3017
  73   2.0000      -0.484636       -13.1876
  74   2.0000      -0.478872       -13.0308
  75   2.0000      -0.468241       -12.7415
  76   2.0000      -0.460238       -12.5237
  77   2.0000      -0.448011       -12.1910
  78   2.0000      -0.445633       -12.1263
  79   2.0000      -0.444003       -12.0819
  80   2.0000      -0.443815       -12.0768
  81   2.0000      -0.432020       -11.7559
  82   2.0000      -0.430927       -11.7261
  83   2.0000      -0.423500       -11.5240
  84   2.0000      -0.392739       -10.6870
  85   2.0000      -0.386561       -10.5189
  86   2.0000      -0.357960        -9.7406
  87   2.0000      -0.352337        -9.5876
  88   2.0000      -0.348279        -9.4772
  89   2.0000      -0.339781        -9.2459
  90   2.0000      -0.339134        -9.2283
  91   2.0000      -0.308011        -8.3814
  92   0.0000       0.045326         1.2334
  93   0.0000       0.052354         1.4246
  94   0.0000       0.067901         1.8477
  95   0.0000       0.074088         2.0160
  96   0.0000       0.075100         2.0436

MULLIKEN ATOMIC CHARGES
-----------------------
   0 N :   -0.440868
   1 C :   -0.036244
   2 C :    0.168817
   3 O :   -0.301726
   4 O :   -0.265502
   5 C :   -0.475704
   6 C :   -0.028699
   7 C :   -0.138241
   8 C :   -0.118847
   9 C :   -0.093317
  10 C :   -0.148468
  11 C :   -0.086910
  12 H :    0.191057
  13 H :    0.181722
  14 H :    0.205642
  15 H :    0.149958
  16 H :    0.137675
  17 H :    0.128090
  18 H :    0.125499
  19 H :    0.124398
  20 H :    0.219542
  21 H :    0.203141
  22 H :    0.296790
  23 N :   -0.404338
  24 C :   -0.179369
  25 C :    0.169233
  26 O :   -0.301673
  27 O :   -0.276356
  28 C :   -0.413276
  29 C :   -0.028375
  30 C :   -0.110881
  31 C :   -0.060613
  32 C :   -0.137931
  33 C :    0.089704
  34 O :   -0.333893
  35 C :   -0.146226
  36 H :    0.232062
  37 H :    0.204945
  38 H :    0.171867
  39 H :    0.189377
  40 H :    0.147909
  41 H :    0.130696
  42 H :    0.138426
  43 H :    0.135372
  44 H :    0.283871
  45 H :    0.301726
  46 H :    0.199937
Sum of atomic charges:    0.0000000

LOEWDIN ATOMIC CHARGES
----------------------
   0 N :   -0.201214
   1 C :   -0.055723
   2 C :    0.159299
   3 O :   -0.157070
   4 O :   -0.219977
   5 C :   -0.106918
   6 C :   -0.074153
   7 C :   -0.075762
   8 C :   -0.069270
   9 C :   -0.065542
  10 C :   -0.082801
  11 C :   -0.072670
  12 H :    0.064896
  13 H :    0.086201
  14 H :    0.094582
  15 H :    0.085352
  16 H :    0.081076
  17 H :    0.079153
  18 H :    0.076682
  19 H :    0.077036
  20 H :    0.114394
  21 H :    0.111237
  22 H :    0.150795
  23 N :   -0.207238
  24 C :   -0.064946
  25 C :    0.116936
  26 O :   -0.247738
  27 O :   -0.137787
  28 C :   -0.111585
  29 C :   -0.099725
  30 C :   -0.057041
  31 C :   -0.053568
  32 C :   -0.087691
  33 C :    0.045329
  34 O :   -0.173046
  35 C :   -0.115008
  36 H :    0.122230
  37 H :    0.096503
  38 H :    0.086993
  39 H :    0.089204
  40 H :    0.088991
  41 H :    0.083761
  42 H :    0.089861
  43 H :    0.080965
  44 H :    0.167078
  45 H :    0.180091
  46 H :    0.107830

  Mayer bond orders larger than 0.100000
B(  0-N ,  1-C ) :   0.8569 B(  0-N , 20-H ) :   0.9347 B(  0-N , 21-H ) :   0.9456
B(  1-C ,  2-C ) :   0.8717 B(  1-C ,  5-C ) :   0.8128 B(  1-C , 12-H ) :   0.9898
B(  2-C ,  3-O ) :   1.1160 B(  2-C ,  4-O ) :   2.0871 B(  3-O , 22-H ) :   0.8973
B(  5-C ,  6-C ) :   0.8495 B(  5-C , 13-H ) :   1.0041 B(  5-C , 14-H ) :   1.0089
B(  6-C ,  7-C ) :   1.4542 B(  6-C ,  8-C ) :   1.4225 B(  7-C , 11-C ) :   1.3574
B(  7-C , 15-H ) :   0.9545 B(  8-C ,  9-C ) :   1.3864 B(  8-C , 16-H ) :   0.9556
B(  9-C , 10-C ) :   1.3987 B(  9-C , 17-H ) :   0.9660 B( 10-C , 11-C ) :   1.3928
B( 10-C , 18-H ) :   0.9743 B( 11-C , 19-H ) :   0.9730 B( 23-N , 24-C ) :   1.0783
B( 23-N , 28-C ) :  -0.1103 B( 23-N , 36-H ) :   0.9259 B( 23-N , 46-H ) :   0.9662
B( 24-C , 25-C ) :   0.8399 B( 24-C , 28-C ) :   0.8431 B( 24-C , 37-H ) :   0.9875
B( 25-C , 26-O ) :   2.0701 B( 25-C , 27-O ) :   1.1731 B( 27-O , 45-H ) :   0.8790
B( 28-C , 29-C ) :   0.8011 B( 28-C , 38-H ) :   1.0222 B( 28-C , 39-H ) :   1.0070
B( 29-C , 30-C ) :   1.4268 B( 29-C , 31-C ) :   1.3936 B( 30-C , 35-C ) :   1.3582
B( 30-C , 40-H ) :   0.9528 B( 31-C , 32-C ) :   1.4036 B( 31-C , 41-H ) :   0.9650
B( 32-C , 33-C ) :   1.4044 B( 32-C , 42-H ) :   0.9613 B( 33-C , 34-O ) :   1.1626
B( 33-C , 35-C ) :   1.3284 B( 34-O , 44-H ) :   0.9065 B( 35-C , 43-H ) :   0.9357

-------------------------------------------------------------------------------
SPIN ORBIT CORRECTED ABSORPTION SPECTRUM VIA TRANSITION ELECTRIC DIPOLE MOMENTS
-------------------------------------------------------------------------------
States    Energy  Wavelength   fosc         T2         TX        TY        TZ
          (cm-1)    (nm)                  (au**2)     (au)      (au)      (au)
-------------------------------------------------------------------------------
 0  1 2340279.2    4.3   0.000000000   0.00000   0.00000   0.00000   0.00000
 0  2 2340279.2    4.3   0.000000008   0.00000   0.00003   0.00000   0.00000
 0  3 2340279.2    4.3   0.000000011   0.00000   0.00000   0.00004   0.00000
 0  4 2343730.4    4.3   0.115821701   0.01627   0.00093   0.00178   0.12753
 0  5 2353827.4    4.2   0.000000000   0.00000   0.00000   0.00000   0.00000
 0  6 2353827.4    4.2   0.000000001   0.00000   0.00000   0.00001   0.00000
 0  7 2353827.4    4.2   0.000000001   0.00000   0.00001   0.00001   0.00000
 0  8 2353837.3    4.2   0.000000000   0.00000   0.00000   0.00000   0.00000
 0  9 2353837.3    4.2   0.000000000   0.00000   0.00000   0.00000   0.00000
 0 10 2353837.3    4.2   0.000000002   0.00000   0.00000   0.00002   0.00000
 0 11 2354571.6    4.2   0.012378964   0.00173   0.00256   0.00135   0.04150
 0 12 2354620.0    4.2   0.019515767   0.00273   0.00179   0.00051   0.05220
 0 13 2358920.0    4.2   0.000000000   0.00000   0.00000   0.00000   0.00000
 0 14 2358920.0    4.2   0.000000000   0.00000   0.00000   0.00000   0.00000
 0 15 2358920.0    4.2   0.000000003   0.00000   0.00000   0.00002   0.00001
 0 16 2358923.2    4.2   0.000243986   0.00003   0.00017   0.00050   0.00581
 0 17 2361947.5    4.2   0.000003558   0.00000   0.00049   0.00042   0.00028
 0 18 2361950.8    4.2   0.000000000   0.00000   0.00000   0.00000   0.00000
 0 19 2361950.8    4.2   0.000000000   0.00000   0.00000   0.00000   0.00000
 0 20 2361950.8    4.2   0.000000000   0.00000   0.00000   0.00000   0.00000
 0 21 2362119.9    4.2   0.000105362   0.00001   0.00074   0.00052   0.00372
 0 22 2362126.6    4.2   0.000000000   0.00000   0.00000   0.00000   0.00000
 0 23 2362126.6    4.2   0.000000000   0.00000   0.00000   0.00000   0.00000
 0 24 2362126.6    4.2   0.000000000   0.00000   0.00000   0.00000   0.00000
 0 25 2362475.0    4.2   0.000000000   0.00000   0.00000   0.00000   0.00000
 0 26 2362475.0    4.2   0.000000000   0.00000   0.00000   0.00000   0.00000
 0 27 2362475.0    4.2   0.000000000   0.00000   0.00000   0.00000   0.00000
 0 28 2362537.1    4.2   0.001846652   0.00026   0.00013   0.00021   0.01604
 0 29 2364033.8    4.2   0.000000000   0.00000   0.00000   0.00000   0.00000
 0 30 2364033.8    4.2   0.000000000   0.00000   0.00000   0.00000   0.00000
 0 31 2364033.8    4.2   0.000000000   0.00000   0.00000   0.00000   0.00000
 0 32 2364034.1    4.2   0.000001969   0.00000   0.00045   0.00001   0.00026
 0 33 2364278.6    4.2   0.000000000   0.00000   0.00000   0.00000   0.00000
 0 34 2364278.6    4.2   0.000000000   0.00000   0.00000   0.00000   0.00000
 0 35 2364278.6    4.2   0.000000000   0.00000   0.00000   0.00000   0.00000
 0 36 2364288.1    4.2   0.000213574   0.00003   0.00025   0.00043   0.00543
 0 37 2364821.3    4.2   0.000000000   0.00000   0.00000   0.00000   0.00000
 0 38 2364821.3    4.2   0.000000000   0.00000   0.00000   0.00000   0.00000
 0 39 2364821.3    4.2   0.000000000   0.00000   0.00000   0.00000   0.00000
 0 40 2364822.2    4.2   0.000050505   0.00001   0.00001   0.00032   0.00263
 0 41 2364938.4    4.2   0.000000000   0.00000   0.00000   0.00000   0.00000
 0 42 2364938.4    4.2   0.000000000   0.00000   0.00000   0.00000   0.00000
 0 43 2364938.4    4.2   0.000000000   0.00000   0.00000   0.00000   0.00000
 0 44 2364940.5    4.2   0.000055397   0.00001   0.00111   0.00010   0.00254
 0 45 2365272.1    4.2   0.000000000   0.00000   0.00000   0.00000   0.00000
 0 46 2365272.1    4.2   0.000000000   0.00000   0.00000   0.00000   0.00000
 0 47 2365272.1    4.2   0.000000000   0.00000   0.00000   0.00000   0.00000
 0 48 2365273.2    4.2   0.000487082   0.00007   0.00118   0.00008   0.00815
 0 49 2365440.0    4.2   0.000000000   0.00000   0.00000   0.00000   0.00000
 0 50 2365440.0    4.2   0.000000000   0.00000   0.00000   0.00000   0.00000
 0 51 2365440.0    4.2   0.000000000   0.00000   0.00000   0.00000   0.00000
 0 52 2365441.7    4.2   0.000031962   0.00000   0.00028   0.00069   0.00197
 0 53 2371982.0    4.2   0.000000000   0.00000   0.00000   0.00000   0.00000
 0 54 2371982.0    4.2   0.000000000   0.00000   0.00000   0.00000   0.00000
 0 55 2371982.0    4.2   0.000000000   0.00000   0.00000   0.00000   0.00000
 0 56 2371984.0    4.2   0.000011178   0.00000   0.00099   0.00068   0.00032
 0 57 2376825.6    4.2   0.000000000   0.00000   0.00000   0.00000   0.00000
 0 58 2376825.6    4.2   0.000000000   0.00000   0.00000   0.00000   0.00000
 0 59 2376825.6    4.2   0.000000000   0.00000   0.00000   0.00000   0.00000
 0 60 2376825.7    4.2   0.000001827   0.00000   0.00028   0.00039   0.00016
 0 61 2378277.7    4.2   0.000000000   0.00000   0.00000   0.00000   0.00000
 0 62 2378277.7    4.2   0.000000000   0.00000   0.00000   0.00000   0.00000
 0 63 2378277.7    4.2   0.000000000   0.00000   0.00000   0.00000   0.00000
 0 64 2378277.9    4.2   0.000003923   0.00000   0.00003   0.00043   0.00060
 0 65 2394819.6    4.2   0.000000000   0.00000   0.00000   0.00000   0.00000
 0 66 2394819.6    4.2   0.000000000   0.00000   0.00000   0.00000   0.00000
 0 67 2394819.6    4.2   0.000000000   0.00000   0.00000   0.00000   0.00000
 0 68 2394819.6    4.2   0.000000218   0.00000   0.00007   0.00005   0.00015
 0 69 2395934.5    4.2   0.000000000   0.00000   0.00000   0.00000   0.00000
 0 70 2395934.5    4.2   0.000000000   0.00000   0.00000   0.00000   0.00000
 0 71 2395934.5    4.2   0.000000000   0.00000   0.00000   0.00000   0.00000
 0 72 2395934.8    4.2   0.000007604   0.00000   0.00010   0.00004   0.00102
 0 73 2418590.4    4.1   0.000000003   0.00000   0.00000   0.00000   0.00002
 0 74 2418590.4    4.1   0.000000000   0.00000   0.00000   0.00000   0.00000
 0 75 2418590.5    4.1   0.000001343   0.00000   0.00043   0.00001   0.00000
 0 76 2422224.9    4.1   0.000073494   0.00001   0.00014   0.00316   0.00006
 0 77 2422225.7    4.1   0.000000002   0.00000   0.00000   0.00000   0.00002
 0 78 2422225.7    4.1   0.000000000   0.00000   0.00000   0.00000   0.00000
 0 79 2423357.2    4.1   0.136939015   0.01860   0.00685   0.13619   0.00278
 0 80 2426579.1    4.1   0.118043291   0.01601   0.12628   0.00809   0.00154
 0 81 2427724.3    4.1   0.000000008   0.00000   0.00001   0.00003   0.00000
 0 82 2427724.3    4.1   0.000000001   0.00000   0.00000   0.00001   0.00000
 0 83 2427724.3    4.1   0.000000034   0.00000   0.00000   0.00000   0.00007
 0 84 2428812.5    4.1   0.000000009   0.00000   0.00002   0.00003   0.00000
 0 85 2428812.5    4.1   0.000000000   0.00000   0.00000   0.00000   0.00000
 0 86 2428812.5    4.1   0.000000025   0.00000   0.00000   0.00000   0.00006
 0 87 2430460.7    4.1   0.000000000   0.00000   0.00000   0.00000   0.00000
 0 88 2430460.7    4.1   0.000000000   0.00000   0.00000   0.00000   0.00000
 0 89 2430460.7    4.1   0.000000000   0.00000   0.00000   0.00000   0.00000
 0 90 2431925.9    4.1   0.061729054   0.00836   0.08003   0.04417   0.00102
 0 91 2431976.6    4.1   0.030904122   0.00418   0.05544   0.03331   0.00035
 0 92 2432109.6    4.1   0.046540089   0.00630   0.03789   0.06969   0.00280
 0 93 2439320.1    4.1   0.000000000   0.00000   0.00000   0.00000   0.00000
 0 94 2439320.1    4.1   0.000000000   0.00000   0.00000   0.00000   0.00001
 0 95 2439320.1    4.1   0.000000323   0.00000   0.00015   0.00015   0.00000
 0 96 2439542.4    4.1   0.003601030   0.00049   0.01613   0.01503   0.00015
 0 97 2441402.2    4.1   0.005074965   0.00068   0.00189   0.02608   0.00085
 0 98 2441530.4    4.1   0.000000000   0.00000   0.00000   0.00000   0.00000
 0 99 2441530.4    4.1   0.000000000   0.00000   0.00000   0.00000   0.00001
 0 100 2441530.4    4.1   0.000000286   0.00000   0.00012   0.00015   0.00000
 0 101 2444350.6    4.1   0.000388114   0.00005   0.00156   0.00703   0.00060
 0 102 2444514.1    4.1   0.000000000   0.00000   0.00000   0.00000   0.00000
 0 103 2444514.1    4.1   0.000000000   0.00000   0.00000   0.00000   0.00000
 0 104 2444514.1    4.1   0.000000069   0.00000   0.00000   0.00010   0.00000
 0 105 2444667.0    4.1   0.000000001   0.00000   0.00001   0.00000   0.00000
 0 106 2444667.0    4.1   0.000000000   0.00000   0.00000   0.00000   0.00000
 0 107 2444667.0    4.1   0.000000000   0.00000   0.00000   0.00000   0.00000
 0 108 2444707.5    4.1   0.000513045   0.00007   0.00243   0.00795   0.00003
 0 109 2445632.6    4.1   0.000000108   0.00000   0.00005   0.00011   0.00001
 0 110 2445632.6    4.1   0.000000000   0.00000   0.00000   0.00000   0.00000
 0 111 2445632.6    4.1   0.000000000   0.00000   0.00000   0.00000   0.00000
 0 112 2445650.7    4.1   0.000167428   0.00002   0.00303   0.00365   0.00006
 0 113 2446462.7    4.1   0.000000025   0.00000   0.00006   0.00002   0.00000
 0 114 2446462.7    4.1   0.000000000   0.00000   0.00000   0.00000   0.00000
 0 115 2446462.7    4.1   0.000000000   0.00000   0.00000   0.00000   0.00001
 0 116 2446469.3    4.1   0.000698033   0.00009   0.00158   0.00956   0.00030
 0 117 2447037.4    4.1   0.001338539   0.00018   0.00786   0.01086   0.00059
 0 118 2447041.0    4.1   0.000000000   0.00000   0.00000   0.00000   0.00000
 0 119 2447041.0    4.1   0.000000000   0.00000   0.00000   0.00000   0.00001
 0 120 2447041.1    4.1   0.000008027   0.00000   0.00061   0.00084   0.00004
 0 121 2447297.4    4.1   0.000000000   0.00000   0.00000   0.00000   0.00000
 0 122 2447297.4    4.1   0.000000000   0.00000   0.00000   0.00000   0.00000
 0 123 2447297.4    4.1   0.000000000   0.00000   0.00000   0.00000   0.00000
 0 124 2447297.5    4.1   0.000001370   0.00000   0.00018   0.00023   0.00031
 0 125 2447510.5    4.1   0.000000000   0.00000   0.00000   0.00000   0.00000
 0 126 2447510.5    4.1   0.000000000   0.00000   0.00000   0.00000   0.00000
 0 127 2447510.5    4.1   0.000000001   0.00000   0.00001   0.00000   0.00000
 0 128 2447511.2    4.1   0.000017848   0.00000   0.00072   0.00135   0.00022
 0 129 2447776.3    4.1   0.000434215   0.00006   0.00343   0.00683   0.00015
 0 130 2447794.7    4.1   0.000000000   0.00000   0.00000   0.00000   0.00000
 0 131 2447794.7    4.1   0.000000000   0.00000   0.00000   0.00000   0.00000
 0 132 2447794.7    4.1   0.000000074   0.00000   0.00005   0.00008   0.00000
 0 133 2448083.0    4.1   0.000005250   0.00000   0.00065   0.00050   0.00016
 0 134 2448084.8    4.1   0.000000001   0.00000   0.00001   0.00000   0.00000
 0 135 2448084.8    4.1   0.000000000   0.00000   0.00000   0.00000   0.00000
 0 136 2448084.8    4.1   0.000000000   0.00000   0.00000   0.00000   0.00000
 0 137 2448177.3    4.1   0.000000000   0.00000   0.00000   0.00000   0.00000
 0 138 2448177.3    4.1   0.000000000   0.00000   0.00000   0.00000   0.00000
 0 139 2448177.3    4.1   0.000000001   0.00000   0.00001   0.00000   0.00000
 0 140 2448177.6    4.1   0.000007449   0.00000   0.00069   0.00072   0.00011
 0 141 2448384.3    4.1   0.000000000   0.00000   0.00000   0.00000   0.00000
 0 142 2448384.3    4.1   0.000000000   0.00000   0.00000   0.00000   0.00000
 0 143 2448384.3    4.1   0.000000000   0.00000   0.00000   0.00000   0.00000
 0 144 2448384.4    4.1   0.000001449   0.00000   0.00002   0.00043   0.00011
 0 145 2448532.5    4.1   0.000018094   0.00000   0.00126   0.00091   0.00007
 0 146 2448545.8    4.1   0.000000012   0.00000   0.00002   0.00003   0.00000
 0 147 2448545.8    4.1   0.000000000   0.00000   0.00000   0.00000   0.00000
 0 148 2448545.8    4.1   0.000000000   0.00000   0.00000   0.00000   0.00000
 0 149 2448601.8    4.1   0.000435935   0.00006   0.00765   0.00020   0.00001
 0 150 2448608.3    4.1   0.000000000   0.00000   0.00000   0.00000   0.00000
 0 151 2448608.3    4.1   0.000000000   0.00000   0.00000   0.00000   0.00000
 0 152 2448608.3    4.1   0.000000026   0.00000   0.00000   0.00006   0.00000
 0 153 2449397.6    4.1   0.000000000   0.00000   0.00000   0.00000   0.00000
 0 154 2449397.6    4.1   0.000000000   0.00000   0.00000   0.00000   0.00000
 0 155 2449397.6    4.1   0.000000000   0.00000   0.00000   0.00000   0.00000
 0 156 2449397.6    4.1   0.000000628   0.00000   0.00001   0.00029   0.00000
 0 157 2449734.8    4.1   0.000000000   0.00000   0.00000   0.00000   0.00000
 0 158 2449734.8    4.1   0.000000000   0.00000   0.00000   0.00000   0.00000
 0 159 2449734.8    4.1   0.000000001   0.00000   0.00000   0.00001   0.00000
 0 160 2449735.4    4.1   0.000015235   0.00000   0.00139   0.00020   0.00029
 0 161 2450216.3    4.1   0.000012266   0.00000   0.00107   0.00067   0.00020
 0 162 2450217.2    4.1   0.000000000   0.00000   0.00000   0.00000   0.00000
 0 163 2450217.2    4.1   0.000000000   0.00000   0.00000   0.00000   0.00000
 0 164 2450217.2    4.1   0.000000002   0.00000   0.00002   0.00001   0.00000
 0 165 2450323.5    4.1   0.000000000   0.00000   0.00000   0.00000   0.00000
 0 166 2450323.5    4.1   0.000000000   0.00000   0.00000   0.00000   0.00000
 0 167 2450323.5    4.1   0.000000001   0.00000   0.00001   0.00000   0.00000
 0 168 2450323.8    4.1   0.000008575   0.00000   0.00068   0.00078   0.00028
 0 169 2450714.9    4.1   0.000185156   0.00002   0.00286   0.00409   0.00001
 0 170 2450728.3    4.1   0.000000010   0.00000   0.00003   0.00002   0.00000
 0 171 2450728.3    4.1   0.000000002   0.00000   0.00001   0.00001   0.00000
 0 172 2450728.3    4.1   0.000000005   0.00000   0.00002   0.00001   0.00000
 0 173 2450738.4    4.1   0.000000295   0.00000   0.00002   0.00018   0.00008
 0 174 2450738.6    4.1   0.000000000   0.00000   0.00000   0.00001   0.00000
 0 175 2450738.6    4.1   0.000000000   0.00000   0.00000   0.00000   0.00000
 0 176 2450738.6    4.1   0.000000000   0.00000   0.00000   0.00001   0.00000
 0 177 2452941.9    4.1   0.000000000   0.00000   0.00000   0.00000   0.00000
 0 178 2452941.9    4.1   0.000000000   0.00000   0.00000   0.00000   0.00000
 0 179 2452941.9    4.1   0.000000000   0.00000   0.00001   0.00000   0.00000
 0 180 2452954.5    4.1   0.000237496   0.00003   0.00010   0.00329   0.00459
 0 181 2456989.9    4.1   0.000000000   0.00000   0.00000   0.00000   0.00000
 0 182 2456989.9    4.1   0.000000000   0.00000   0.00000   0.00000   0.00000
 0 183 2456989.9    4.1   0.000000005   0.00000   0.00001   0.00002   0.00002
 0 184 2456991.0    4.1   0.000015489   0.00000   0.00139   0.00018   0.00035
 0 185 2459767.0    4.1   0.000000000   0.00000   0.00000   0.00000   0.00000
 0 186 2459767.0    4.1   0.000000000   0.00000   0.00000   0.00000   0.00000
 0 187 2459767.0    4.1   0.000000000   0.00000   0.00000   0.00000   0.00000
 0 188 2459767.2    4.1   0.000002054   0.00000   0.00032   0.00041   0.00008
 0 189 2460075.3    4.1   0.000000000   0.00000   0.00000   0.00000   0.00000
 0 190 2460075.3    4.1   0.000000000   0.00000   0.00000   0.00000   0.00001
 0 191 2460075.3    4.1   0.000000004   0.00000   0.00002   0.00000   0.00000
 0 192 2461555.7    4.1   0.000000000   0.00000   0.00000   0.00000   0.00000
 0 193 2461555.7    4.1   0.000000000   0.00000   0.00000   0.00000   0.00000
 0 194 2461555.7    4.1   0.000000000   0.00000   0.00000   0.00000   0.00000
 0 195 2461555.8    4.1   0.000000915   0.00000   0.00001   0.00035   0.00005
 0 196 2462051.7    4.1   0.000000000   0.00000   0.00000   0.00000   0.00000

Dispersion correction           -0.082562232
FINAL SINGLE POINT ENERGY     -1186.550160635662

DIPOLE MOMENT
-------------
                                X             Y             Z
Electronic contribution:     -1.08586       0.26021      -4.84341
Nuclear contribution   :      1.75884      -1.20973       5.02942
                        -----------------------------------------
Total Dipole Moment    :      0.67298      -0.94952       0.18601
                        -----------------------------------------
Magnitude (a.u.)       :      1.17860
Magnitude (Debye)      :      2.99576

Rotational constants in cm-1:     0.007814     0.004928     0.003403
Rotational constants in MHz :   234.245671   147.745078   102.021787

                             ****ORCA TERMINATED NORMALLY****
TOTAL RUN TIME: 0 days 0 hours 6 minutes 29 seconds 693 msec
